
             +---------------------------------------------------+
             |                                                   |
             |                   WANNIER90                       |
             |                                                   |
             +---------------------------------------------------+
             |                                                   |
             |        Welcome to the Maximally-Localized         |
             |        Generalized Wannier Functions code         |
             |            http://www.wannier.org                 |
             |                                                   |
             |                                                   |
             |  Wannier90 Developer Group:                       |
             |    Giovanni Pizzi    (EPFL)                       |
             |    Valerio Vitale    (Cambridge)                  |
             |    David Vanderbilt  (Rutgers University)         |
             |    Nicola Marzari    (EPFL)                       |
             |    Ivo Souza         (Universidad del Pais Vasco) |
             |    Arash A. Mostofi  (Imperial College London)    |
             |    Jonathan R. Yates (University of Oxford)       |
             |                                                   |
             |  For the full list of Wannier90 3.x authors,      |
             |  please check the code documentation and the      |
             |  README on the GitHub page of the code            |
             |                                                   |
             |                                                   |
             |  Please cite                                      |
             |                                                   |
             |  [ref] "Wannier90 as a community code:            |
             |        new features and applications",            |
             |        G. Pizzi et al., J. Phys. Cond. Matt. 32,  |
             |        165902 (2020).                             |
             |        http://doi.org/10.1088/1361-648X/ab51ff    |
             |                                                   |
             |  in any publications arising from the use of      |
             |  this code. For the method please cite            |
             |                                                   |
             |  [ref] "Maximally Localized Generalised Wannier   |
             |         Functions for Composite Energy Bands"     |
             |         N. Marzari and D. Vanderbilt              |
             |         Phys. Rev. B 56 12847 (1997)              |
             |                                                   |
             |  [ref] "Maximally Localized Wannier Functions     |
             |         for Entangled Energy Bands"               |
             |         I. Souza, N. Marzari and D. Vanderbilt    |
             |         Phys. Rev. B 65 035109 (2001)             |
             |                                                   |
             |                                                   |
             | Copyright (c) 1996-2020                           |
             |        The Wannier90 Developer Group and          |
             |        individual contributors                    |
             |                                                   |
             |      Release: 3.1.0        5th March    2020      |
             |                                                   |
             | This program is free software; you can            |
             | redistribute it and/or modify it under the terms  |
             | of the GNU General Public License as published by |
             | the Free Software Foundation; either version 2 of |
             | the License, or (at your option) any later version|
             |                                                   |
             | This program is distributed in the hope that it   |
             | will be useful, but WITHOUT ANY WARRANTY; without |
             | even the implied warranty of MERCHANTABILITY or   |
             | FITNESS FOR A PARTICULAR PURPOSE. See the GNU     |
             | General Public License for more details.          |
             |                                                   |
             | You should have received a copy of the GNU General|
             | Public License along with this program; if not,   |
             | write to the Free Software Foundation, Inc.,      |
             | 675 Mass Ave, Cambridge, MA 02139, USA.           |
             |                                                   |
             +---------------------------------------------------+
             |    Execution started on 20Jan2021 at 12:15:31     |
             +---------------------------------------------------+
 
 ******************************************************************************
 * -> Using CODATA 2006 constant values                                       *
 *    (http://physics.nist.gov/cuu/Constants/index.html)                      *
 * -> Using Bohr value from CODATA                                            *
 ******************************************************************************
 

 Running in serial (with serial executable)

                                    ------
                                    SYSTEM
                                    ------

                              Lattice Vectors (Ang)
                    a_1     3.858560   0.000000   0.000000
                    a_2     0.000000   3.858560   0.000000
                    a_3     0.000000   0.000000   3.858560

                   Unit Cell Volume:      57.44810  (Ang^3)

                        Reciprocal-Space Vectors (Ang^-1)
                    b_1     1.628376   0.000000   0.000000
                    b_2     0.000000   1.628376   0.000000
                    b_3     0.000000   0.000000   1.628376
  
 *----------------------------------------------------------------------------*
 |   Site       Fractional Coordinate          Cartesian Coordinate (Ang)     |
 +----------------------------------------------------------------------------+
 | Sr   1   0.00000   0.00000   0.00000   |    0.00000   0.00000   0.00000    |
 | V    1   0.50000   0.50000   0.50000   |    1.92928   1.92928   1.92928    |
 | O    1   0.50000   0.50000   0.00000   |    1.92928   1.92928   0.00000    |
 | O    2   0.50000   0.00000   0.50000   |    1.92928   0.00000   1.92928    |
 | O    3   0.00000   0.50000   0.50000   |    0.00000   1.92928   1.92928    |
 *----------------------------------------------------------------------------*
                                -----------
                                PROJECTIONS
                                -----------
  
 +----------------------------------------------------------------------------+
 |     Frac. Coord.   l mr  r        z-axis               x-axis          Z/a |
 +----------------------------------------------------------------------------+
 |  0.50  0.50  0.50  2  5  1  0.000  0.000  1.000  1.000  0.000  0.000   1.0 |
 |  0.50  0.50  0.50  2  2  1  0.000  0.000  1.000  1.000  0.000  0.000   1.0 |
 |  0.50  0.50  0.50  2  3  1  0.000  0.000  1.000  1.000  0.000  0.000   1.0 |
 +----------------------------------------------------------------------------+
  
                                ------------
                                K-POINT GRID
                                ------------
  
             Grid size =  5 x  5 x  5      Total points =  125
  
 *----------------------------------------------------------------------------*
 | k-point      Fractional Coordinate        Cartesian Coordinate (Ang^-1)    |
 +----------------------------------------------------------------------------+
 |     1    0.00000   0.00000   0.00000   |    0.00000   0.00000   0.00000    |
 |     2    0.00000   0.00000   0.20000   |    0.00000   0.00000   0.32568    |
 |     3    0.00000   0.00000   0.40000   |    0.00000   0.00000   0.65135    |
 |     4    0.00000   0.00000   0.60000   |    0.00000   0.00000   0.97703    |
 |     5    0.00000   0.00000   0.80000   |    0.00000   0.00000   1.30270    |
 |     6    0.00000   0.20000   0.00000   |    0.00000   0.32568   0.00000    |
 |     7    0.00000   0.20000   0.20000   |    0.00000   0.32568   0.32568    |
 |     8    0.00000   0.20000   0.40000   |    0.00000   0.32568   0.65135    |
 |     9    0.00000   0.20000   0.60000   |    0.00000   0.32568   0.97703    |
 |    10    0.00000   0.20000   0.80000   |    0.00000   0.32568   1.30270    |
 |    11    0.00000   0.40000   0.00000   |    0.00000   0.65135   0.00000    |
 |    12    0.00000   0.40000   0.20000   |    0.00000   0.65135   0.32568    |
 |    13    0.00000   0.40000   0.40000   |    0.00000   0.65135   0.65135    |
 |    14    0.00000   0.40000   0.60000   |    0.00000   0.65135   0.97703    |
 |    15    0.00000   0.40000   0.80000   |    0.00000   0.65135   1.30270    |
 |    16    0.00000   0.60000   0.00000   |    0.00000   0.97703   0.00000    |
 |    17    0.00000   0.60000   0.20000   |    0.00000   0.97703   0.32568    |
 |    18    0.00000   0.60000   0.40000   |    0.00000   0.97703   0.65135    |
 |    19    0.00000   0.60000   0.60000   |    0.00000   0.97703   0.97703    |
 |    20    0.00000   0.60000   0.80000   |    0.00000   0.97703   1.30270    |
 |    21    0.00000   0.80000   0.00000   |    0.00000   1.30270   0.00000    |
 |    22    0.00000   0.80000   0.20000   |    0.00000   1.30270   0.32568    |
 |    23    0.00000   0.80000   0.40000   |    0.00000   1.30270   0.65135    |
 |    24    0.00000   0.80000   0.60000   |    0.00000   1.30270   0.97703    |
 |    25    0.00000   0.80000   0.80000   |    0.00000   1.30270   1.30270    |
 |    26    0.20000   0.00000   0.00000   |    0.32568   0.00000   0.00000    |
 |    27    0.20000   0.00000   0.20000   |    0.32568   0.00000   0.32568    |
 |    28    0.20000   0.00000   0.40000   |    0.32568   0.00000   0.65135    |
 |    29    0.20000   0.00000   0.60000   |    0.32568   0.00000   0.97703    |
 |    30    0.20000   0.00000   0.80000   |    0.32568   0.00000   1.30270    |
 |    31    0.20000   0.20000   0.00000   |    0.32568   0.32568   0.00000    |
 |    32    0.20000   0.20000   0.20000   |    0.32568   0.32568   0.32568    |
 |    33    0.20000   0.20000   0.40000   |    0.32568   0.32568   0.65135    |
 |    34    0.20000   0.20000   0.60000   |    0.32568   0.32568   0.97703    |
 |    35    0.20000   0.20000   0.80000   |    0.32568   0.32568   1.30270    |
 |    36    0.20000   0.40000   0.00000   |    0.32568   0.65135   0.00000    |
 |    37    0.20000   0.40000   0.20000   |    0.32568   0.65135   0.32568    |
 |    38    0.20000   0.40000   0.40000   |    0.32568   0.65135   0.65135    |
 |    39    0.20000   0.40000   0.60000   |    0.32568   0.65135   0.97703    |
 |    40    0.20000   0.40000   0.80000   |    0.32568   0.65135   1.30270    |
 |    41    0.20000   0.60000   0.00000   |    0.32568   0.97703   0.00000    |
 |    42    0.20000   0.60000   0.20000   |    0.32568   0.97703   0.32568    |
 |    43    0.20000   0.60000   0.40000   |    0.32568   0.97703   0.65135    |
 |    44    0.20000   0.60000   0.60000   |    0.32568   0.97703   0.97703    |
 |    45    0.20000   0.60000   0.80000   |    0.32568   0.97703   1.30270    |
 |    46    0.20000   0.80000   0.00000   |    0.32568   1.30270   0.00000    |
 |    47    0.20000   0.80000   0.20000   |    0.32568   1.30270   0.32568    |
 |    48    0.20000   0.80000   0.40000   |    0.32568   1.30270   0.65135    |
 |    49    0.20000   0.80000   0.60000   |    0.32568   1.30270   0.97703    |
 |    50    0.20000   0.80000   0.80000   |    0.32568   1.30270   1.30270    |
 |    51    0.40000   0.00000   0.00000   |    0.65135   0.00000   0.00000    |
 |    52    0.40000   0.00000   0.20000   |    0.65135   0.00000   0.32568    |
 |    53    0.40000   0.00000   0.40000   |    0.65135   0.00000   0.65135    |
 |    54    0.40000   0.00000   0.60000   |    0.65135   0.00000   0.97703    |
 |    55    0.40000   0.00000   0.80000   |    0.65135   0.00000   1.30270    |
 |    56    0.40000   0.20000   0.00000   |    0.65135   0.32568   0.00000    |
 |    57    0.40000   0.20000   0.20000   |    0.65135   0.32568   0.32568    |
 |    58    0.40000   0.20000   0.40000   |    0.65135   0.32568   0.65135    |
 |    59    0.40000   0.20000   0.60000   |    0.65135   0.32568   0.97703    |
 |    60    0.40000   0.20000   0.80000   |    0.65135   0.32568   1.30270    |
 |    61    0.40000   0.40000   0.00000   |    0.65135   0.65135   0.00000    |
 |    62    0.40000   0.40000   0.20000   |    0.65135   0.65135   0.32568    |
 |    63    0.40000   0.40000   0.40000   |    0.65135   0.65135   0.65135    |
 |    64    0.40000   0.40000   0.60000   |    0.65135   0.65135   0.97703    |
 |    65    0.40000   0.40000   0.80000   |    0.65135   0.65135   1.30270    |
 |    66    0.40000   0.60000   0.00000   |    0.65135   0.97703   0.00000    |
 |    67    0.40000   0.60000   0.20000   |    0.65135   0.97703   0.32568    |
 |    68    0.40000   0.60000   0.40000   |    0.65135   0.97703   0.65135    |
 |    69    0.40000   0.60000   0.60000   |    0.65135   0.97703   0.97703    |
 |    70    0.40000   0.60000   0.80000   |    0.65135   0.97703   1.30270    |
 |    71    0.40000   0.80000   0.00000   |    0.65135   1.30270   0.00000    |
 |    72    0.40000   0.80000   0.20000   |    0.65135   1.30270   0.32568    |
 |    73    0.40000   0.80000   0.40000   |    0.65135   1.30270   0.65135    |
 |    74    0.40000   0.80000   0.60000   |    0.65135   1.30270   0.97703    |
 |    75    0.40000   0.80000   0.80000   |    0.65135   1.30270   1.30270    |
 |    76    0.60000   0.00000   0.00000   |    0.97703   0.00000   0.00000    |
 |    77    0.60000   0.00000   0.20000   |    0.97703   0.00000   0.32568    |
 |    78    0.60000   0.00000   0.40000   |    0.97703   0.00000   0.65135    |
 |    79    0.60000   0.00000   0.60000   |    0.97703   0.00000   0.97703    |
 |    80    0.60000   0.00000   0.80000   |    0.97703   0.00000   1.30270    |
 |    81    0.60000   0.20000   0.00000   |    0.97703   0.32568   0.00000    |
 |    82    0.60000   0.20000   0.20000   |    0.97703   0.32568   0.32568    |
 |    83    0.60000   0.20000   0.40000   |    0.97703   0.32568   0.65135    |
 |    84    0.60000   0.20000   0.60000   |    0.97703   0.32568   0.97703    |
 |    85    0.60000   0.20000   0.80000   |    0.97703   0.32568   1.30270    |
 |    86    0.60000   0.40000   0.00000   |    0.97703   0.65135   0.00000    |
 |    87    0.60000   0.40000   0.20000   |    0.97703   0.65135   0.32568    |
 |    88    0.60000   0.40000   0.40000   |    0.97703   0.65135   0.65135    |
 |    89    0.60000   0.40000   0.60000   |    0.97703   0.65135   0.97703    |
 |    90    0.60000   0.40000   0.80000   |    0.97703   0.65135   1.30270    |
 |    91    0.60000   0.60000   0.00000   |    0.97703   0.97703   0.00000    |
 |    92    0.60000   0.60000   0.20000   |    0.97703   0.97703   0.32568    |
 |    93    0.60000   0.60000   0.40000   |    0.97703   0.97703   0.65135    |
 |    94    0.60000   0.60000   0.60000   |    0.97703   0.97703   0.97703    |
 |    95    0.60000   0.60000   0.80000   |    0.97703   0.97703   1.30270    |
 |    96    0.60000   0.80000   0.00000   |    0.97703   1.30270   0.00000    |
 |    97    0.60000   0.80000   0.20000   |    0.97703   1.30270   0.32568    |
 |    98    0.60000   0.80000   0.40000   |    0.97703   1.30270   0.65135    |
 |    99    0.60000   0.80000   0.60000   |    0.97703   1.30270   0.97703    |
 |   100    0.60000   0.80000   0.80000   |    0.97703   1.30270   1.30270    |
 |   101    0.80000   0.00000   0.00000   |    1.30270   0.00000   0.00000    |
 |   102    0.80000   0.00000   0.20000   |    1.30270   0.00000   0.32568    |
 |   103    0.80000   0.00000   0.40000   |    1.30270   0.00000   0.65135    |
 |   104    0.80000   0.00000   0.60000   |    1.30270   0.00000   0.97703    |
 |   105    0.80000   0.00000   0.80000   |    1.30270   0.00000   1.30270    |
 |   106    0.80000   0.20000   0.00000   |    1.30270   0.32568   0.00000    |
 |   107    0.80000   0.20000   0.20000   |    1.30270   0.32568   0.32568    |
 |   108    0.80000   0.20000   0.40000   |    1.30270   0.32568   0.65135    |
 |   109    0.80000   0.20000   0.60000   |    1.30270   0.32568   0.97703    |
 |   110    0.80000   0.20000   0.80000   |    1.30270   0.32568   1.30270    |
 |   111    0.80000   0.40000   0.00000   |    1.30270   0.65135   0.00000    |
 |   112    0.80000   0.40000   0.20000   |    1.30270   0.65135   0.32568    |
 |   113    0.80000   0.40000   0.40000   |    1.30270   0.65135   0.65135    |
 |   114    0.80000   0.40000   0.60000   |    1.30270   0.65135   0.97703    |
 |   115    0.80000   0.40000   0.80000   |    1.30270   0.65135   1.30270    |
 |   116    0.80000   0.60000   0.00000   |    1.30270   0.97703   0.00000    |
 |   117    0.80000   0.60000   0.20000   |    1.30270   0.97703   0.32568    |
 |   118    0.80000   0.60000   0.40000   |    1.30270   0.97703   0.65135    |
 |   119    0.80000   0.60000   0.60000   |    1.30270   0.97703   0.97703    |
 |   120    0.80000   0.60000   0.80000   |    1.30270   0.97703   1.30270    |
 |   121    0.80000   0.80000   0.00000   |    1.30270   1.30270   0.00000    |
 |   122    0.80000   0.80000   0.20000   |    1.30270   1.30270   0.32568    |
 |   123    0.80000   0.80000   0.40000   |    1.30270   1.30270   0.65135    |
 |   124    0.80000   0.80000   0.60000   |    1.30270   1.30270   0.97703    |
 |   125    0.80000   0.80000   0.80000   |    1.30270   1.30270   1.30270    |
 *----------------------------------------------------------------------------*
  
  
 *---------------------------------- MAIN ------------------------------------*
 |  Number of Wannier Functions               :                 3             |
 |  Number of Objective Wannier Functions     :                 3             |
 |  Number of input Bloch states              :                 3             |
 |  Output verbosity (1=low, 5=high)          :                 2             |
 |  Timing Level (1=low, 5=high)              :                 1             |
 |  Optimisation (0=memory, 3=speed)          :                 3             |
 |  Length Unit                               :               Ang             |
 |  Post-processing setup (write *.nnkp)      :                 F             |
 |  Using Gamma-only branch of algorithms     :                 F             |
 *----------------------------------------------------------------------------*
 *------------------------------- WANNIERISE ---------------------------------*
 |  Total number of iterations                :              1000             |
 |  Number of CG steps before reset           :                 5             |
 |  Trial step length for line search         :             2.000             |
 |  Convergence tolerence                     :         0.100E-11             |
 |  Convergence window                        :                 5             |
 |  Iterations between writing output         :                 1             |
 |  Iterations between backing up to disk     :               100             |
 |  Write r^2_nm to file                      :                 F             |
 |  Write xyz WF centres to file              :                 F             |
 |  Write on-site energies <0n|H|0n> to file  :                 F             |
 |  Use guiding centre to control phases      :                 F             |
 |  Use phases for initial projections        :                 F             |
 *----------------------------------------------------------------------------*
 *-------------------------------- PLOTTING ----------------------------------*
 |  Plotting interpolated bandstructure       :                 T             |
 |   Number of K-path sections                :                 4             |
 |   Divisions along first K-path section     :               100             |
 |   Output format                            :           gnuplot             |
 |   Output mode                              :               s-k             |
 *----------------------------------------------------------------------------*
 |   K-space path sections:                                                   |
 |    From: R       0.500  0.500  0.500     To: G       0.000  0.000  0.000   |
 |    From: G       0.000  0.000  0.000     To: X       0.500  0.000  0.000   |
 |    From: X       0.500  0.000  0.000     To: M       0.500  0.500  0.000   |
 |    From: M       0.500  0.500  0.000     To: G       0.000  0.000  0.000   |
 *----------------------------------------------------------------------------*
 |  Plotting Hamiltonian in WF basis          :                 T             |
 *----------------------------------------------------------------------------*
 Time to read parameters        0.038 (sec)

 *---------------------------------- K-MESH ----------------------------------*
 +----------------------------------------------------------------------------+
 |                    Distance to Nearest-Neighbour Shells                    |
 |                    ------------------------------------                    |
 |          Shell             Distance (Ang^-1)          Multiplicity         |
 |          -----             -----------------          ------------         |
 |             1                   0.325675                      6            |
 |             2                   0.460574                     12            |
 |             3                   0.564086                      8            |
 |             4                   0.651350                      6            |
 |             5                   0.728232                     24            |
 |             6                   0.797738                     24            |
 |             7                   0.921148                     12            |
 |             8                   0.977025                     30            |
 |             9                   1.029875                     24            |
 |            10                   1.080142                     24            |
 |            11                   1.128172                      8            |
 |            12                   1.174238                     24            |
 |            13                   1.218565                     48            |
 |            14                   1.302701                      6            |
 |            15                   1.342793                     48            |
 |            16                   1.381723                     36            |
 |            17                   1.419585                     24            |
 |            18                   1.456464                     24            |
 |            19                   1.492431                     48            |
 |            20                   1.527552                     24            |
 |            21                   1.595476                     24            |
 |            22                   1.628376                     30            |
 |            23                   1.660624                     72            |
 |            24                   1.692258                     32            |
 |            25                   1.753814                     72            |
 |            26                   1.783796                     48            |
 |            27                   1.842297                     12            |
 |            28                   1.870861                     48            |
 |            29                   1.898996                     48            |
 |            30                   1.926720                     48            |
 |            31                   1.954051                     30            |
 |            32                   1.981005                     24            |
 |            33                   2.007597                     72            |
 |            34                   2.059751                     24            |
 |            35                   2.085339                     96            |
 |            36                   2.110616                     48            |
 +----------------------------------------------------------------------------+
 | The b-vectors are chosen automatically                                     |
 | Shell:  1 w_b    4.7141211      (Ang^2)                                    |
 | The following shells are used:   1                                         |
 +----------------------------------------------------------------------------+
 |                        Shell   # Nearest-Neighbours                        |
 |                        -----   --------------------                        |
 |                          1               6                                 |
 +----------------------------------------------------------------------------+
 | Completeness relation is fully satisfied [Eq. (B1), PRB 56, 12847 (1997)]  |
 +----------------------------------------------------------------------------+
 |                  b_k Vectors (Ang^-1) and Weights (Ang^2)                  |
 |                  ----------------------------------------                  |
 |            No.         b_k(x)      b_k(y)      b_k(z)        w_b           |
 |            ---        --------------------------------     --------        |
 |             1         0.000000    0.000000    0.325675     4.714121        |
 |             2         0.000000    0.325675    0.000000     4.714121        |
 |             3         0.325675    0.000000    0.000000     4.714121        |
 |             4         0.000000    0.000000   -0.325675     4.714121        |
 |             5         0.000000   -0.325675    0.000000     4.714121        |
 |             6        -0.325675    0.000000    0.000000     4.714121        |
 +----------------------------------------------------------------------------+
 |                           b_k Directions (Ang^-1)                          |
 |                           -----------------------                          |
 |            No.           x           y           z                         |
 |            ---        --------------------------------                     |
 |             1         0.000000    0.000000    0.325675                     |
 |             2         0.000000    0.325675    0.000000                     |
 |             3         0.325675    0.000000    0.000000                     |
 +----------------------------------------------------------------------------+
  
 Time to get kmesh              0.983 (sec)
 *============================================================================*
 |                              MEMORY ESTIMATE                               |
 |         Maximum RAM allocated during each phase of the calculation         |
 *============================================================================*
 |                            Wannierise:            0.40 Mb                  |
 |                                                                            |
 |   N.B. by setting optimisation=0 memory usage will be reduced to:          |
 |                            Wannierise:            0.30 Mb                  |
 |   However, this will result in more i/o and slow down the calculation      |
 |                          plot_wannier:            0.40 Mb                  |
 *----------------------------------------------------------------------------*
  
 Starting a new Wannier90 calculation ...


 Reading overlaps from svo.mmn    :  Created on 20Jan2021 at 12:11:40

 Reading projections from svo.amn :  Created on 20Jan2021 at 12:11:37

 Time to read overlaps          0.009 (sec)

 Writing checkpoint file svo.chk... done


 *------------------------------- WANNIERISE ---------------------------------*
 +--------------------------------------------------------------------+<-- CONV
 | Iter  Delta Spread     RMS Gradient      Spread (Ang^2)      Time  |<-- CONV
 +--------------------------------------------------------------------+<-- CONV

 ------------------------------------------------------------------------------
 Initial State
  WF centre and spread    1  (  1.929280,  1.929280,  1.929280 )     1.76259417
  WF centre and spread    2  (  1.929280,  1.929280,  1.929280 )     1.76259417
  WF centre and spread    3  (  1.929280,  1.929280,  1.929280 )     1.76259416
  Sum of centres and spreads (  5.787840,  5.787840,  5.787840 )     5.28778250

      0     0.529E+01     0.0000000000        5.2877824986       0.00  <-- CONV
        O_D=      0.0000000 O_OD=      0.0050674 O_TOT=      5.2877825 <-- SPRD
 ------------------------------------------------------------------------------
 Cycle:      1
  WF centre and spread    1  (  1.929280,  1.929280,  1.929280 )     1.76256734
  WF centre and spread    2  (  1.929280,  1.929280,  1.929280 )     1.76256734
  WF centre and spread    3  (  1.929280,  1.929280,  1.929280 )     1.76256734
  Sum of centres and spreads (  5.787840,  5.787840,  5.787840 )     5.28770203

      1    -0.805E-04     0.0114629136        5.2877020258       0.00  <-- CONV
        O_D=      0.0000000 O_OD=      0.0049870 O_TOT=      5.2877020 <-- SPRD
 Delta: O_D= -0.2555964E-15 O_OD= -0.8047285E-04 O_TOT= -0.8047285E-04 <-- DLTA
 ------------------------------------------------------------------------------
 Cycle:      2
  WF centre and spread    1  (  1.929280,  1.929280,  1.929280 )     1.76256666
  WF centre and spread    2  (  1.929280,  1.929280,  1.929280 )     1.76256666
  WF centre and spread    3  (  1.929280,  1.929280,  1.929280 )     1.76256666
  Sum of centres and spreads (  5.787840,  5.787840,  5.787840 )     5.28769999

      2    -0.204E-05     0.0020332922        5.2876999889       0.01  <-- CONV
        O_D=      0.0000000 O_OD=      0.0049849 O_TOT=      5.2877000 <-- SPRD
 Delta: O_D= -0.8145839E-16 O_OD= -0.2036858E-05 O_TOT= -0.2036858E-05 <-- DLTA
 ------------------------------------------------------------------------------
 Cycle:      3
  WF centre and spread    1  (  1.929280,  1.929280,  1.929280 )     1.76256665
  WF centre and spread    2  (  1.929280,  1.929280,  1.929280 )     1.76256664
  WF centre and spread    3  (  1.929280,  1.929280,  1.929280 )     1.76256664
  Sum of centres and spreads (  5.787840,  5.787840,  5.787840 )     5.28769993

      3    -0.564E-07     0.0003306237        5.2876999325       0.01  <-- CONV
        O_D=      0.0000000 O_OD=      0.0049849 O_TOT=      5.2876999 <-- SPRD
 Delta: O_D= -0.1523854E-16 O_OD= -0.5642465E-07 O_TOT= -0.5642465E-07 <-- DLTA
 ------------------------------------------------------------------------------
 Cycle:      4
  WF centre and spread    1  (  1.929280,  1.929280,  1.929280 )     1.76256665
  WF centre and spread    2  (  1.929280,  1.929280,  1.929280 )     1.76256664
  WF centre and spread    3  (  1.929280,  1.929280,  1.929280 )     1.76256664
  Sum of centres and spreads (  5.787840,  5.787840,  5.787840 )     5.28769993

      4     0.000E+00     0.0000000155        5.2876999325       0.01  <-- CONV
        O_D=      0.0000000 O_OD=      0.0049849 O_TOT=      5.2876999 <-- SPRD
 Delta: O_D= -0.4129760E-18 O_OD= -0.5204170E-17 O_TOT=  0.0000000E+00 <-- DLTA
 ------------------------------------------------------------------------------
 Cycle:      5
  WF centre and spread    1  (  1.929280,  1.929280,  1.929280 )     1.76256665
  WF centre and spread    2  (  1.929280,  1.929280,  1.929280 )     1.76256664
  WF centre and spread    3  (  1.929280,  1.929280,  1.929280 )     1.76256664
  Sum of centres and spreads (  5.787840,  5.787840,  5.787840 )     5.28769993

      5     0.000E+00     0.0000000153        5.2876999325       0.01  <-- CONV
        O_D=      0.0000000 O_OD=      0.0049849 O_TOT=      5.2876999 <-- SPRD
 Delta: O_D= -0.7674746E-18 O_OD=  0.1214306E-16 O_TOT=  0.0000000E+00 <-- DLTA
 ------------------------------------------------------------------------------
 Cycle:      6
  WF centre and spread    1  (  1.929280,  1.929280,  1.929280 )     1.76256665
  WF centre and spread    2  (  1.929280,  1.929280,  1.929280 )     1.76256664
  WF centre and spread    3  (  1.929280,  1.929280,  1.929280 )     1.76256664
  Sum of centres and spreads (  5.787840,  5.787840,  5.787840 )     5.28769993

      6     0.000E+00     0.0000000147        5.2876999325       0.02  <-- CONV
        O_D=      0.0000000 O_OD=      0.0049849 O_TOT=      5.2876999 <-- SPRD
 Delta: O_D= -0.1006497E-17 O_OD= -0.2602085E-16 O_TOT=  0.0000000E+00 <-- DLTA
 ------------------------------------------------------------------------------
 Cycle:      7
  WF centre and spread    1  (  1.929280,  1.929280,  1.929280 )     1.76256665
  WF centre and spread    2  (  1.929280,  1.929280,  1.929280 )     1.76256664
  WF centre and spread    3  (  1.929280,  1.929280,  1.929280 )     1.76256664
  Sum of centres and spreads (  5.787840,  5.787840,  5.787840 )     5.28769993

      7     0.000E+00     0.0000000140        5.2876999325       0.02  <-- CONV
        O_D=      0.0000000 O_OD=      0.0049849 O_TOT=      5.2876999 <-- SPRD
 Delta: O_D= -0.2940592E-18 O_OD=  0.9540979E-17 O_TOT=  0.0000000E+00 <-- DLTA
 ------------------------------------------------------------------------------
 Cycle:      8
  WF centre and spread    1  (  1.929280,  1.929280,  1.929280 )     1.76256665
  WF centre and spread    2  (  1.929280,  1.929280,  1.929280 )     1.76256664
  WF centre and spread    3  (  1.929280,  1.929280,  1.929280 )     1.76256664
  Sum of centres and spreads (  5.787840,  5.787840,  5.787840 )     5.28769993

      8     0.000E+00     0.0000000138        5.2876999325       0.02  <-- CONV
        O_D=      0.0000000 O_OD=      0.0049849 O_TOT=      5.2876999 <-- SPRD
 Delta: O_D= -0.2782491E-18 O_OD= -0.2428613E-16 O_TOT=  0.0000000E+00 <-- DLTA
 ------------------------------------------------------------------------------

             <<<     Delta < 1.000E-12  over  5 iterations     >>>
             <<< Wannierisation convergence criteria satisfied >>>

 Final State
  WF centre and spread    1  (  1.929280,  1.929280,  1.929280 )     1.76256665
  WF centre and spread    2  (  1.929280,  1.929280,  1.929280 )     1.76256664
  WF centre and spread    3  (  1.929280,  1.929280,  1.929280 )     1.76256664
  Sum of centres and spreads (  5.787840,  5.787840,  5.787840 )     5.28769993

         Spreads (Ang^2)       Omega I      =     5.282715053
        ================       Omega D      =     0.000000000
                               Omega OD     =     0.004984880
    Final Spread (Ang^2)       Omega Total  =     5.287699932
 ------------------------------------------------------------------------------
 Time for wannierise            0.020 (sec)

 Writing checkpoint file svo.chk... done

 *---------------------------------------------------------------------------*
 |                               PLOTTING                                    |
 *---------------------------------------------------------------------------*


 Calculating interpolated band-structure

 Time to calculate interpolated band structure       0.040 (sec)

 Time for plotting              0.337 (sec)
 Total Execution Time           1.388 (sec)

 *===========================================================================*
 |                             TIMING INFORMATION                            |
 *===========================================================================*
 |    Tag                                                Ncalls      Time (s)|
 |---------------------------------------------------------------------------|
 |kmesh: get                                        :         1         0.983|
 |overlap: allocate                                 :         1         0.000|
 |overlap: read                                     :         1         0.009|
 |wann: main                                        :         1         0.020|
 |plot: main                                        :         1         0.337|
 *---------------------------------------------------------------------------*

 All done: wannier90 exiting
